  <PP_INFO>

############################################################
#    Opium Parameter File                                  #
############################################################
#-----------------------------------------------------------
#Command line   : opium Cu Cu.log ae ps nl tc ke rpt upf plot vi 
 
#Opium version  : 4.1 
#Compile Host   : rainfall 
#Compile OS     : Linux 5.14.0-1054-oem x86_64 
#Compile Date   : Thu Dec  1 15:34:46 CST 2022 
#-----------------------------------------------------------
#Execution Host : rainfall 
#Execution Date : Thu Dec  1 15:48:36 2022
 
#-----------------------------------------------------------
############################################################
[Atom]
Cu
8                   # norb: number of orbitals
100  2.00  -        # nlm occ eigen(- means auto-generate)
200  2.00  -
210  6.00  -
300  2.00  -
310  6.00  -
400  1.50  -
410  0.00  -
320  9.50  -

[Pseudo]
3  1.88 1.86 1.97
opt

[Optinfo]
7.07 10
7.07 10
7.07 10

[Configs]
5
#
400  1.50  -
410  0.00  -
320  9.50  -
#
400  1.50  -
410  0.00  -
320  9.00  -
#
400  1.50  -
410  0.00  -
320  8.50  -
#
400  1.60  -
410  0.00  -
320  8.70  -
#
400  2.00  -
410  0.00  -
320  9.00  -

[XC]
gga               # lda[PZ] or gga[PBE]

[KBdesign]
0                 # local orb
1                # number of aug. operators
au 0.1 1.61 -3.05  # unit(gp or au)  left  right  height(Ry)
############################################################
  </PP_INFO>



<PP_HEADER>
   0         Version Number
   Cu        Element
   NC        Norm - Conserving pseudopotential
    F      Nonlinear Core Correction
SLA  PW   PBE  PBE     PBE  Exchange-Correlation functional
 11          Z valence
 0          Total energy
 0.000000   0.000000     Suggested cutoff for wfc and rho
 2           Max angular momentum component
 1163           Number of points in mesh
 3  3     Number of Wavefuncitons, Number of Projectors
 Wavefunctions         nl  l   occ
                       S  0  1.500000
                       P  1  0.000000
                       D  2  9.500000
</PP_HEADER>
<PP_MESH>
  <PP_R>
 3.2548726473766757e-05  3.2974622242406695e-05  3.3406090800688398e-05  3.3843205067825142e-05 
 3.4286038917168455e-05  3.4734667188692894e-05  3.5189165701644048e-05  3.5649611267352406e-05 
 3.6116081702214456e-05  3.6588655840843963e-05  3.7067413549395116e-05  3.7552435739060138e-05 
 3.8043804379743485e-05  3.8541602513914956e-05  3.9045914270644052e-05  3.9556824879817913e-05 
 4.0074420686545511e-05  4.0598789165750156e-05  4.1130018936952844e-05  4.1668199779249311e-05 
 4.2213422646482818e-05  4.2765779682615591e-05  4.3325364237301442e-05  4.3892270881661976e-05 
 4.4466595424269349e-05  4.5048434927338203e-05  4.5637887723129405e-05  4.6235053430568415e-05 
 4.6840032972081085e-05  4.7452928590649855e-05  4.8073843867092989e-05  4.8702883737570084e-05 
 4.9340154511316426e-05  4.9985763888609482e-05  5.0639820978970679e-05  5.1302436319604976e-05 
 5.1973721894082061e-05  5.2653791151261730e-05  5.3342759024467077e-05  5.4040741950908492e-05 
 5.4747857891361841e-05  5.5464226350103980e-05  5.6189968395109518e-05  5.6925206678511404e-05 
 5.7670065457329432e-05  5.8424670614470098e-05  5.9189149680000977e-05  5.9963631852703671e-05 
 6.0748248021908724e-05  6.1543130789616174e-05  6.2348414492905730e-05  6.3164235226639823e-05 
 6.3990730866464167e-05  6.4828041092109096e-05  6.5676307410995584e-05  6.6535673182150512e-05 
 6.7406283640434556e-05  6.8288285921087310e-05  6.9181829084593528e-05  7.0087064141874410e-05 
 7.1004144079809240e-05  7.1933223887090335e-05  7.2874460580416356e-05  7.3828013231028752e-05 
 7.4794042991594973e-05  7.5772713123443847e-05  7.6764189024156989e-05  7.7768638255521383e-05 
 7.8786230571847925e-05  7.9817137948659885e-05  8.0861534611757679e-05  8.1919597066663159e-05 
 8.2991504128449440e-05  8.4077436951961255e-05  8.5177579062430358e-05  8.6292116386491936e-05 
 8.7421237283606435e-05  8.8565132577892813e-05  8.9723995590378457e-05  9.0898022171670651e-05 
 9.2087410735055967e-05  9.3292362290032393e-05  9.4513080476280745e-05  9.5749771598079844e-05 
 9.7002644659172700e-05  9.8271911398088680e-05  9.9557786323927570e-05  1.0086048675261249e-04 
 1.0218023284361620e-04  1.0351724763716931e-04  1.0487175709195418e-04  1.0624399012329251e-04 
 1.0763417864183267e-04  1.0904255759274303e-04  1.1046936499541852e-04  1.1191484198370590e-04 
 1.1337923284665668e-04  1.1486278506981211e-04  1.1636574937702884e-04  1.1788837977285203e-04 
 1.1943093358544261e-04  1.2099367151006626e-04  1.2257685765315184e-04  1.2418075957692552e-04 
 1.2580564834462990e-04  1.2745179856633429e-04  1.2911948844534387e-04  1.3080899982521760e-04 
 1.3252061823739984e-04  1.3425463294947611e-04  1.3601133701405990e-04  1.3779102731831911e-04 
 1.3959400463415129e-04  1.4142057366901373e-04  1.4327104311742087e-04  1.4514572571311385e-04 
 1.4704493828191314e-04  1.4896900179526331e-04  1.5091824142447746e-04  1.5289298659569242e-04 
 1.5489357104554212e-04  1.5692033287756019e-04  1.5897361461932014e-04  1.6105376328032344e-04 
 1.6316113041064457e-04  1.6529607216034440e-04  1.6745894933965997e-04  1.6965012747998236e-04 
 1.7186997689563259e-04  1.7411887274644541e-04  1.7639719510117229e-04  1.7870532900171355e-04 
 1.8104366452819192e-04  1.8341259686487711e-04  1.8581252636697216e-04  1.8824385862827503e-04 
 1.9070700454972464e-04  1.9320238040884430e-04  1.9573040793009340e-04  1.9829151435614000e-04 
 2.0088613252006572e-04  2.0351470091851601e-04  2.0617766378580596e-04  2.0887547116899859e-04 
 2.1160857900396254e-04  2.1437744919242704e-04  2.1718254968004417e-04  2.2002435453547271e-04 
 2.2290334403049717e-04  2.2582000472119414e-04  2.2877482953016236e-04  2.3176831782982751e-04 
 2.3480097552683687e-04  2.3787331514755924e-04  2.4098585592470317e-04  2.4413912388506794e-04 
 2.4733365193844406e-04  2.5056997996767577e-04  2.5384865491990280e-04  2.5717023089899576e-04 
 2.6053526925920076e-04  2.6394433870000951e-04  2.6739801536227169e-04  2.7089688292556319e-04 
 2.7444153270683020e-04  2.7803256376032173e-04  2.8167058297883321e-04  2.8535620519627128e-04 
 2.8909005329156299e-04  2.9287275829392316e-04  2.9670495948950061e-04  3.0058730452941828e-04 
 3.0452044953922818e-04  3.0850505922979852e-04  3.1254180700965035e-04  3.1663137509876672e-04 
 3.2077445464388798e-04  3.2497174583531838e-04  3.2922395802525945e-04  3.3353180984769116e-04 
 3.3789602933982535e-04  3.4231735406514311e-04  3.4679653123804657e-04  3.5133431785013827e-04 
 3.5593148079815631e-04  3.6058879701358074e-04  3.6530705359393652e-04  3.7008704793581586e-04 
 3.7492958786963928e-04  3.7983549179618139e-04  3.8480558882488224e-04  3.8984071891396907e-04 
 3.9494173301241091e-04  4.0010949320373149e-04  4.0534487285170267e-04  4.1064875674794589e-04 
 4.1602204126146364e-04  4.2146563449012688e-04  4.2698045641414799e-04  4.3256743905155788e-04 
 4.3822752661572018e-04  4.4396167567490403e-04  4.4977085531394873e-04  4.5565604729803965e-04 
 4.6161824623862938e-04  4.6765845976152949e-04  4.7377770867720176e-04  4.7997702715327716e-04 
 4.8625746288933329e-04  4.9262007729395751e-04  4.9906594566412777e-04  5.0559615736694053e-04 
 5.1221181602371609e-04  5.1891403969651331e-04  5.2570396107708551e-04  5.3258272767830528e-04 
 5.3955150202810115e-04  5.4661146186592475e-04  5.5376380034179195e-04  5.6100972621792825e-04 
 5.6835046407305268e-04  5.7578725450933453e-04  5.8332135436205785e-04  5.9095403691202940e-04 
 5.9868659210076693e-04  6.0652032674850156e-04  6.1445656477503391e-04  6.2249664742347914e-04 
 6.3064193348694099e-04  6.3889379953815158e-04  6.4725364016211264e-04  6.5572286819178763e-04 
 6.6430291494687106e-04  6.7299523047568532e-04  6.8180128380024372e-04  6.9072256316451747e-04 
 6.9976057628595278e-04  7.0891685061027804e-04  7.1819293356964703e-04  7.2759039284415810e-04 
 7.3711081662679529e-04  7.4675581389183781e-04  7.5652701466677886e-04  7.6642607030780576e-04 
 7.7645465377888323e-04  7.8661445993448670e-04  7.9690720580603738e-04  8.0733463089208526e-04 
 8.1789849745228863e-04  8.2860059080523902e-04  8.3944271963018544e-04  8.5042671627270374e-04 
 8.6155443705436996e-04  8.7282776258648155e-04  8.8424859808788480e-04  8.9581887370696186e-04 
 9.0754054484783100e-04  9.1941559250081364e-04  9.3144602357722725e-04  9.4363387124855717e-04 
 9.5598119529006771e-04  9.6849008242891007e-04  9.8116264669678276e-04  9.9400102978720981e-04 
 1.0070074014174890e-03  1.0201839596953829e-03  1.0335329314906019e-03  1.0470565728111509e-03 
 1.0607571691846015e-03  1.0746370360443485e-03  1.0886985191209274e-03  1.1029439948384452e-03 
 1.1173758707162045e-03  1.1319965857755773e-03  1.1468086109522073e-03  1.1618144495136040e-03 
 1.1770166374821991e-03  1.1924177440639427e-03  1.2080203720825017e-03  1.2238271584191487e-03 
 1.2398407744583953e-03  1.2560639265394671e-03  1.2724993564136769e-03  1.2891498417077921e-03 
 1.3060181963934574e-03  1.3231072712627631e-03  1.3404199544100356e-03  1.3579591717199325e-03 
 1.3757278873619235e-03  1.3937291042912449e-03  1.4119658647564020e-03  1.4304412508133176e-03 
 1.4491583848462092e-03  1.4681204300952767e-03  1.4873305911912993e-03  1.5067921146972244e-03 
 1.5265082896568439e-03  1.5464824481506529e-03  1.5667179658589768e-03  1.5872182626324720e-03 
 1.6079868030700847e-03  1.6290270971045797e-03  1.6503427005957285e-03  1.6719372159312526e-03 
 1.6938142926356421e-03  1.7159776279869286e-03  1.7384309676415368e-03  1.7611781062673113e-03 
 1.7842228881848187e-03  1.8075692080170521e-03  1.8312210113476321e-03  1.8551822953876114e-03 
 1.8794571096510245e-03  1.9040495566392582e-03  1.9289637925343861e-03  1.9542040279015727e-03 
 1.9797745284006693e-03  2.0056796155071208e-03  2.0319236672423041e-03  2.0585111189134284e-03 
 2.0854464638631028e-03  2.1127342542287342e-03  2.1403791017118425e-03  2.1683856783574489e-03 
 2.1967587173436663e-03  2.2255030137816123e-03  2.2546234255257998e-03  2.2841248739951235e-03 
 2.3140123450045920e-03  2.3442908896079374e-03  2.3749656249512658e-03  2.4060417351378597e-03 
 2.4375244721043031e-03  2.4694191565080765e-03  2.5017311786267567e-03  2.5344659992689858e-03 
 2.5676291506973670e-03  2.6012262375634241e-03  2.6352629378547962e-03  2.6697450038548468e-03 
 2.7046782631148002e-03  2.7400686194386172e-03  2.7759220538807459e-03  2.8122446257569439e-03 
 2.8490424736683094e-03  2.8863218165387215e-03  2.9240889546658568e-03  2.9623502707859417e-03 
 3.0011122311524698e-03  3.0403813866290014e-03  3.0801643737962737e-03  3.1204679160738076e-03 
 3.1612988248561733e-03  3.2026640006641367e-03  3.2445704343108620e-03  3.2870252080833811e-03 
 3.3300354969395011e-03  3.3736085697204099e-03  3.4177517903791164e-03  3.4624726192249771e-03 
 3.5077786141845071e-03  3.5536774320786861e-03  3.6001768299169820e-03  3.6472846662083031e-03 
 3.6950089022891076e-03  3.7433576036688750e-03  3.7923389413932144e-03  3.8419611934247836e-03 
 3.8922327460422807e-03  3.9431620952577488e-03  3.9947578482524239e-03  4.0470287248313627e-03 
 4.0999835588971184e-03  4.1536312999426893e-03  4.2079810145639893e-03  4.2630418879921550e-03 
 4.3188232256458426e-03  4.3753344547038794e-03  4.4325851256984839e-03  4.4905849141293102e-03 
 4.5493436220986521e-03  4.6088711799680063e-03  4.6691776480363382e-03  4.7302732182402793e-03 
 4.7921682158766094e-03  4.8548731013472483e-03  4.9183984719270825e-03  4.9827550635549358e-03 
 5.0479537526479691e-03  5.1140055579398181e-03  5.1809216423427864e-03  5.2487133148344097e-03 
 5.3173920323686830e-03  5.3869694018123327e-03  5.4574571819063968e-03  5.5288672852534795e-03 
 5.6012117803310090e-03  5.6745028935308401e-03  5.7487530112255436e-03  5.8239746818617337e-03 
 5.9001806180807850e-03  5.9773836988672880e-03  6.0555969717256521e-03  6.1348336548851428e-03 
 6.2151071395338082e-03  6.2964309920816100e-03  6.3788189564531897e-03  6.4622849564106135e-03 
 6.5468430979065354e-03  6.6325076714681313e-03  6.7192931546122079e-03  6.8072142142919807e-03 
 6.8962857093757997e-03  6.9865226931583261e-03  7.0779404159046011e-03  7.1705543274273439e-03 
 7.2643800796980346e-03  7.3594335294921241e-03  7.4557307410688650e-03  7.5532879888862035e-03 
 7.6521217603512182e-03  7.7522487586065211e-03  7.8536859053531336e-03  7.9564503437102811e-03 
 8.0605594411126379e-03  8.1660307922454510e-03  8.2728822220181023e-03  8.3811317885765374e-03 
 8.4907977863551403e-03  8.6018987491685590e-03  8.7144534533439358e-03  8.8284809208941696e-03 
 8.9440004227326758e-03  9.0610314819302117e-03  9.1795938770143203e-03  9.2997076453119679e-03 
 9.4213930863358848e-03  9.5446707652152123e-03  9.6695615161711008e-03  9.7960864460377144e-03 
 9.9242669378293413e-03  1.0054124654354178e-02  1.0185681541875385e-02  1.0318959833820082e-02 
 1.0453982054536815e-02  1.0590771023102262e-02  1.0729349857177665e-02  1.0869741976915820e-02 
 1.1011971108919112e-02  1.1156061290249370e-02  1.1302036872490184e-02  1.1449922525862390e-02 
 1.1599743243393383e-02  1.1751524345141033e-02  1.1905291482472781e-02  1.2061070642400801e-02 
 1.2218888151973901e-02  1.2378770682726820e-02  1.2540745255187797e-02  1.2704839243445084e-02 
 1.2871080379773260e-02  1.3039496759320032e-02  1.3210116844854396e-02  1.3382969471576906e-02 
 1.3558083851992864e-02  1.3735489580849360e-02  1.3915216640136811e-02  1.4097295404156010e-02 
 1.4281756644651438e-02  1.4468631536011774e-02  1.4657951660538439e-02  1.4849749013783076e-02 
 1.5044056009954896e-02  1.5240905487398697e-02  1.5440330714144693e-02  1.5642365393530862e-02 
 1.5847043669898878e-02  1.6054400134364610e-02  1.6264469830664069e-02  1.6477288261075924e-02 
 1.6692891392421444e-02  1.6911315662142993e-02  1.7132597984461994e-02  1.7356775756617610e-02 
 1.7583886865186898e-02  1.7813969692487761e-02  1.8047063123065622e-02  1.8283206550265038e-02 
 1.8522439882887251e-02  1.8764803551934862e-02  1.9010338517444825e-02  1.9259086275410651e-02 
 1.9511088864795530e-02  1.9766388874636821e-02  2.0025029451243851e-02  2.0287054305489646e-02 
 2.0552507720198218e-02  2.0821434557628464e-02  2.1093880267055980e-02  2.1369890892454120e-02 
 2.1649513080275472e-02  2.1932794087335328e-02  2.2219781788798118e-02  2.2510524686268438e-02 
 2.2805071915987969e-02  2.3103473257139580e-02  2.3405779140260149e-02  2.3712040655763440e-02 
 2.4022309562574520e-02  2.4336638296877086e-02  2.4655079980975370e-02  2.4977688432271918e-02 
 2.5304518172362830e-02  2.5635624436252075e-02  2.5971063181686318e-02  2.6310891098611906e-02 
 2.6655165618755618e-02  2.7003944925330800e-02  2.7357287962870343e-02  2.7715254447188607e-02 
 2.8077904875473427e-02  2.8445300536510329e-02  2.8817503521040472e-02  2.9194576732254118e-02 
 2.9576583896421434e-02  2.9963589573662366e-02  3.0355659168857529e-02  3.0752858942701598e-02 
 3.1155256022901767e-02  3.1562918415522334e-02  3.1975915016477910e-02  3.2394315623177052e-02 
 3.2818190946318118e-02  3.3247612621839576e-02  3.3682653223026666e-02  3.4123386272776439e-02 
 3.4569886256023245e-02  3.5022228632326999e-02  3.5480489848625903e-02  3.5944747352156220e-02 
 3.6415079603541033e-02  3.6891566090050266e-02  3.7374287339034196e-02  3.7863324931532848e-02 
 3.8358761516063343e-02  3.8860680822587583e-02  3.9369167676663014e-02  3.9884308013778229e-02 
 4.0406188893876288e-02  4.0934898516068061e-02  4.1470526233538044e-02  4.2013162568645374e-02 
 4.2562899228222185e-02  4.3119829119072438e-02  4.3684046363673130e-02  4.4255646316081552e-02 
 4.4834725578050100e-02  4.5421382015352313e-02  4.6015714774322418e-02  4.6617824298611221e-02 
 4.7227812346161448e-02  4.7845782006404922e-02  4.8471837717685110e-02  4.9106085284907217e-02 
 4.9748631897419689e-02  5.0399586147129402e-02  5.1059058046853859e-02  5.1727159048913729e-02 
 5.2404002063968516e-02  5.3089701480098693e-02  5.3784373182137642e-02  5.4488134571256439e-02 
 5.5201104584804754e-02  5.5923403716411871e-02  5.6655154036350172e-02  5.7396479212165376e-02 
 5.8147504529576587e-02  5.8908356913649991e-02  5.9679164950249400e-02  6.0460058907767573e-02 
 6.1251170759142014e-02  6.2052634204158394e-02  6.2864584692046560e-02  6.3687159444371477e-02 
 6.4520497478224095e-02  6.5364739629715549e-02  6.6220028577778825e-02  6.7086508868281824e-02 
 6.7964326938455957e-02  6.8853631141644403e-02  6.9754571772374041e-02  7.0667301091755841e-02 
 7.1591973353217153e-02  7.2528744828570982e-02  7.3477773834426274e-02  7.4439220758943783e-02 
 7.5413248088942120e-02  7.6400020437358288e-02  7.7399704571067887e-02  7.8412469439068738e-02 
 7.9438486201034025e-02  8.0477928256238576e-02  8.1530971272863684e-02  8.2597793217685483e-02 
 8.3678574386151866e-02  8.4773497432852563e-02  8.5882747402388548e-02  8.7006511760644875e-02 
 8.8144980426472563e-02  8.9298345803785942e-02  9.0466802814078831e-02  9.1650548929367068e-02 
 9.2849784205561531e-02  9.4064711316278193e-02  9.5295535587090419e-02  9.6542465030229466e-02 
 9.7805710379739022e-02  9.9085485127089812e-02  1.0038200555726010e-01  1.0169549078528847e-01 
 1.0302616279330484e-01  1.0437424646804533e-01  1.0573996963885973e-01  1.0712356311621445e-01 
 1.0852526073070023e-01  1.0994529937255014e-01  1.1138391903167447e-01  1.1284136283821962e-01 
 1.1431787710365782e-01  1.1581371136241414e-01  1.1732911841403854e-01  1.1886435436592956e-01 
 1.2041967867661707e-01  1.2199535419961145e-01  1.2359164722782628e-01  1.2520882753858270e-01 
 1.2684716843920230e-01  1.2850694681319658e-01  1.3018844316706157e-01  1.3189194167768256e-01 
 1.3361773024036272e-01  1.3536610051747663e-01  1.3713734798776239e-01  1.3893177199625822e-01 
 1.4074967580489253e-01  1.4259136664373565e-01  1.4445715576292284e-01  1.4634735848525593e-01 
 1.4826229425949400e-01  1.5020228671434041e-01  1.5216766371313756e-01  1.5415875740927604e-01 
 1.5617590430232936e-01  1.5821944529492357e-01  1.6028972575035019e-01  1.6238709555093372e-01 
 1.6451190915716260e-01  1.6666452566759304e-01  1.6884530887953900e-01  1.7105462735055377e-01 
 1.7329285446071729e-01  1.7556036847573847e-01  1.7785755261088274e-01  1.8018479509573640e-01 
 1.8254248923981847e-01  1.8493103349905088e-01  1.8735083154309837e-01  1.8980229232358978e-01 
 1.9228583014323161e-01  1.9480186472582658e-01  1.9735082128720749e-01  1.9993313060709997e-01 
 2.0254922910192524e-01  2.0519955889855551e-01  2.0788456790903481e-01  2.1060470990627575e-01 
 2.1336044460075040e-01  2.1615223771818118e-01  2.1898056107824948e-01  2.2184589267433491e-01 
 2.2474871675429703e-01  2.2768952390231428e-01  2.3066881112179419e-01  2.3368708191936768e-01 
 2.3674484638998342e-01  2.3984262130311476e-01  2.4298093019009490e-01  2.4616030343259532e-01 
 2.4938127835226118e-01  2.5264439930152016e-01  2.5595021775557919e-01  2.5929929240562516e-01 
 2.6269218925324561e-01  2.6612948170608219e-01  2.6961175067474097e-01  2.7313958467096594e-01 
 2.7671357990709877e-01  2.8033434039684119e-01  2.8400247805733336e-01  2.8771861281257061e-01 
 2.9148337269817143e-01  2.9529739396751675e-01  2.9916132119927902e-01  3.0307580740635676e-01 
 3.0704151414623604e-01  3.1105911163279443e-01  3.1512927884956954e-01  3.1925270366450853e-01 
 3.2343008294621900e-01  3.2766212268174227e-01  3.3194953809586702e-01  3.3629305377200130e-01 
 3.4069340377463314e-01  3.4515133177338597e-01  3.4966759116870222e-01  3.5424294521916860e-01 
 3.5887816717050963e-01  3.6357404038626712e-01  3.6833135848019127e-01  3.7315092545036288e-01 
 3.7803355581507075e-01  3.8298007475046797e-01  3.8799131823002758e-01  3.9306813316582501e-01 
 3.9821137755166763e-01  4.0342192060809789e-01  4.0870064292929442e-01  4.1404843663189284e-01 
 4.1946620550575825e-01  4.2495486516672354e-01  4.3051534321133561e-01  4.3614857937361862e-01 
 4.4185552568389153e-01  4.4763714662966397e-01  4.5349441931863660e-01  4.5942833364383451e-01 
 4.6543989245090228e-01  4.7153011170758607e-01  4.7770002067543577e-01  4.8395066208375193e-01 
 4.9028309230580958e-01  4.9669838153738810e-01  5.0319761397763663e-01  5.0978188801230639e-01 
 5.1645231639938050e-01  5.2321002645713255e-01  5.3005616025464719e-01  5.3699187480482891e-01 
 5.4401834225994539e-01  5.5113675010971996e-01  5.5834830138202185e-01  5.6565421484618028e-01 
 5.7305572521895942e-01  5.8055408337322878e-01  5.8815055654936299e-01  5.9584642856940928e-01 
 6.0364300005405602e-01  6.1154158864244057e-01  6.1954352921483369e-01  6.2765017411823787e-01 
 6.3586289339493607e-01  6.4418307501403316e-01  6.5261212510602573e-01  6.6115146820044135e-01 
 6.6980254746658818e-01  6.7856682495745080e-01  6.8744578185678562e-01  6.9644091872944203e-01 
 7.0555375577496027e-01  7.1478583308449073e-01  7.2413871090107196e-01  7.3361396988331551e-01 
 7.4321321137254182e-01  7.5293805766340915e-01  7.6279015227808711e-01  7.7277116024401449e-01 
 7.8288276837529314e-01  7.9312668555776389e-01  8.0350464303781233e-01  8.1401839471495285e-01 
 8.2466971743824269e-01  8.3546041130657323e-01  8.4639229997289289e-01  8.5746723095240185e-01 
 8.6868707593479677e-01  8.8005373110058394e-01  8.9156911744154022e-01  9.0323518108536471e-01 
 9.1505389362457989e-01  9.2702725244973438e-01  9.3915728108696728e-01  9.5144602953998914e-01 
 9.6389557463653697e-01  9.7650802037936280e-01  9.8928549830181667e-01  1.0022301678280785e+00 
 1.0153442166381081e+00  1.0286298610373670e+00  1.0420893463313798e+00  1.0557249472051959e+00 
 1.0695389681078191e+00  1.0835337436416570e+00  1.0977116389570856e+00  1.1120750501521575e+00 
 1.1266264046775516e+00  1.1413681617468159e+00  1.1563028127519821e+00  1.1714328816846160e+00 
 1.1867609255623779e+00  1.2022895348611660e+00  1.2180213339529109e+00  1.2339589815491026e+00 
 1.2501051711501174e+00  1.2664626315004281e+00  1.2830341270497660e+00  1.2998224584203204e+00 
 1.3168304628800513e+00  1.3340610148221930e+00  1.3515170262510361e+00  1.3692014472740544e+00 
 1.3871172666004938e+00  1.4052675120464622e+00  1.4236552510466391e+00  1.4422835911726801e+00 
 1.4611556806584034e+00  1.4802747089318502e+00  1.4996439071543035e+00  1.5192665487663632e+00 
 1.5391459500411664e+00  1.5592854706448422e+00  1.5796885142043071e+00  1.6003585288824846e+00 
 1.6212990079610508e+00  1.6425134904308112e+00  1.6640055615897957e+00  1.6857788536491825e+00 
 1.7078370463471559e+00  1.7301838675707766e+00  1.7528230939860219e+00  1.7757585516760390e+00 
 1.7989941167877666e+00  1.8225337161870117e+00  1.8463813281220978e+00  1.8705409828962041e+00 
 1.8950167635484878e+00  1.9198128065441342e+00  1.9449333024734272e+00  1.9703824967599670e+00 
 1.9961646903781611e+00  2.0222842405800932e+00  2.0487455616319159e+00  2.0755531255598672e+00 
 2.1027114629060550e+00  2.1302251634941309e+00  2.1580988772049832e+00  2.1863373147625631e+00 
 2.2149452485300323e+00  2.2439275133162875e+00  2.2732890071930569e+00  2.3030346923226905e+00 
 2.3331695957967709e+00  2.3636988104857113e+00  2.3946274958994551e+00  2.4259608790594513e+00 
 2.4577042553820303e+00  2.4898629895733424e+00  2.5224425165360072e+00  2.5554483422876237e+00 
 2.5888860448913014e+00  2.6227612753983647e+00  2.6570797588033956e+00  2.6918472950117716e+00 
 2.7270697598198663e+00  2.7627531059080557e+00  2.7989033638467626e+00  2.8355266431156205e+00 
 2.8726291331359932e+00  2.9102171043170020e+00  2.9482969091152373e+00  2.9868749831083452e+00 
 3.0259578460826493e+00  3.0655521031350141e+00  3.1056644457891203e+00  3.1463016531263452e+00 
 3.1874705929314517e+00  3.2291782228532511e+00  3.2714315915804701e+00  3.3142378400329902e+00 
 3.3576042025686812e+00  3.4015380082060305e+00  3.4460466818627622e+00  3.4911377456106463e+00 
 3.5368188199467840e+00  3.5830976250814639e+00  3.6299819822429016e+00  3.6774798149990473e+00 
 3.7255991505966843e+00  3.7743481213180599e+00  3.8237349658552509e+00  3.8737680307025313e+00 
 3.9244557715669428e+00  3.9758067547973326e+00  4.0278296588320881e+00  4.0805332756658110e+00 
 4.1339265123351865e+00  4.1880183924242891e+00  4.2428180575896031e+00  4.2983347691049651e+00 
 4.3545779094267667e+00  4.4115569837795707e+00  4.4692816217625655e+00  4.5277615789769614e+00 
 4.5870067386747140e+00  4.6470271134288232e+00  4.7078328468254753e+00  4.7694342151783387e+00 
 4.8318416292652833e+00  4.8950656360878222e+00  4.9591169206535906e+00  5.0240063077821286e+00 
 5.0897447639343003e+00  5.1563433990656646e+00  5.2238134685040647e+00  5.2921663748518251e+00 
 5.3614136699128032e+00  5.4315670566446785e+00  5.5026383911367933e+00  5.5746396846138104e+00 
 5.6475831054657109e+00  5.7214809813042278e+00  5.7963458010462636e+00  5.8721902170245412e+00 
 5.9490270471258748e+00  6.0268692769574344e+00  6.1057300620413297e+00  6.1856227300379398e+00 
 6.2665607829983063e+00  6.3485578996460195e+00  6.4316279376889556e+00  6.5157849361612570e+00 
 6.6010431177959701e+00  6.6874168914287111e+00  6.7749208544328017e+00  6.8635697951862600e+00 
 6.9533786955710761e+00  7.0443627335051460e+00  7.1365372855074432e+00  7.2299179292966382e+00 
 7.3245204464237927e+00  7.4203608249394559e+00  7.5174552620957122e+00  7.6158201670835330e+00 
 7.7154721638059796e+00  7.8164280936876800e+00  7.9187050185210675e+00  8.0223202233498725e+00 
 8.1272912193903188e+00  8.2336357469905810e+00  8.3413717786289361e+00  8.4505175219511486e+00 
 8.5610914228476229e+00  8.6731121685707819e+00  8.7865986908932925e+00  8.9015701693075044e+00 
 9.0180460342669253e+00  9.1360459704699597e+00  9.2555899201866776e+00  9.3766980866291050e+00 
 9.4993909373656233e+00  9.6236892077800249e+00  9.7496139045758508e+00  9.8771863093265768e+00 
 1.0006427982072237e+01  1.0137360764963134e+01  1.0270006785951209e+01  1.0404388462529722e+01 
 1.0540528505521850e+01  1.0678449922918889e+01  1.0818176023768647e+01  1.0959730422114724e+01 
 1.1103137040987381e+01  1.1248420116446482e+01  1.1395604201677594e+01  1.1544714171141425e+01 
 1.1695775224777721e+01  1.1848812892264077e+01  1.2003853037330549e+01  1.2160921862130659e+01 
 1.2320045911669641e+01  1.2481252078290598e+01  1.2644567606219370e+01  1.2810020096168888e+01 
 1.2977637510003749e+01  1.3147448175465827e+01  1.3319480790961766e+01  1.3493764430413023e+01 
 1.3670328548169486e+01  1.3849202983987295e+01  1.4030417968071864e+01  1.4214004126186769e+01 
 1.4399992484829701e+01  1.4588414476475943e+01  1.4779301944890550e+01  1.4972687150510010e+01 
 1.5168602775894353e+01  1.5367081931250562e+01  1.5568158160028293e+01  1.5771865444588792e+01 
 1.5978238211947993e+01  1.6187311339594764e+01  1.6399120161385298e+01  1.6613700473514594e+01 
 1.6831088540566128e+01  1.7051321101640639e+01  1.7274435376565119e+01  1.7500469072183066e+01 
 1.7729460388727055e+01  1.7961448026274535e+01  1.8196471191288445e+01  1.8434569603243038e+01 
 1.8675783501336642e+01  1.8920153651292146e+01  1.9167721352246502e+01  1.9418528443730430e+01 
 1.9672617312739323e+01  1.9930030900896803e+01  2.0190812711711935e+01  2.0455006817931430e+01 
 2.0722657868988055e+01  2.0993811098546463e+01  2.1268512332147832e+01  2.1546807994954449e+01 
 2.1828745119595698e+01  2.2114371354116734e+01  2.2403734970030911e+01  2.2696884870478080e+01 
 2.2993870598489142e+01  2.3294742345358983e+01  2.3599550959128933e+01  2.3908347953180193e+01 
 2.4221185514939719e+01  2.4538116514700029e+01  2.4859194514554421e+01  2.5184473777449060e+01 
 2.5514009276353569e+01  2.5847856703551592e+01  2.6186072480052918e+01  2.6528713765128757e+01 
 2.6875838465971807e+01  2.7227505247482700e+01  2.7583773542184524e+01  2.7944703560267065e+01 
 2.8310356299762347e+01  2.8680793556853665e+01  2.9056077936319163e+01  2.9436272862112176e+01 
 2.9821442588080057e+01  3.0211652208823249e+01  3.0606967670696381e+01  3.1007455782953407e+01 
 3.1413184229038499e+01  3.1824221578024712e+01  3.2240637296202344e+01  3.2662501758818863e+01 
 3.3089886261972531e+01  3.3522863034661619e+01  3.3961505250991202e+01  3.4405887042539888e+01 
 3.4856083510888091e+01  3.5312170740310556e+01  3.5774225810634441e+01  3.6242326810266448e+01 
 3.6716552849389643e+01  3.7196984073333333e+01  3.7683701676117828e+01  3.8176787914176444e+01 
 3.8676326120256995e+01  3.9182400717505281e+01  3.9695097233732731e+01  4.0214502315870831e+01 
 4.0740703744614756e+01  4.1273790449258300e+01  4.1813852522723408e+01  4.2360981236785854e+01 
 4.2915269057500559e+01  4.3476809660828472e+01  4.4045697948468082e+01  4.4622030063894087e+01 
 4.5205903408605543e+01  4.5797416658587487e+01  4.6396669780987011e+01  4.7003764051008091e+01 
 4.7618802069027289e+01  4.8241887777933520e+01  4.8873126480694573e+01  4.9512624858153636e+01 
 5.0160490987058559e+01  5.0816834358327114e+01  5.1481765895551206e+01  5.2155397973743241e+01 
 5.2837844438327714e+01  5.3529220624381473e+01  5.4229643376125452e+01  5.4939231066671802e+01 
 5.5658103618029116e+01  5.6386382521369633e+01  5.7124190857561203e+01  5.7871653317968807e+01 
 5.8628896225527285e+01  5.9396047556090323e+01  6.0173236960058659e+01  6.0960595784291399e+01 
 6.1758257094303794e+01  6.2566355696755735e+01  6.3385028162234427e+01  6.4214412848335002e+01 
 6.5054649923043499e+01  6.5905881388425328e+01  6.6768251104624184e+01  6.7641904814174637e+01 
 6.8526990166632928e+01  6.9423656743530259e+01  7.0332056083652262e+01  7.1252341708649638e+01 
 7.2184669148983090e+01  7.3129195970209253e+01  7.4086081799608920e+01  7.5055488353164776e+01 
 7.6037579462891614e+01  7.7032521104524506e+01  7.8040481425568899e+01  7.9061630773718093e+01 
 8.0096141725642411e+01  8.1144189116154934e+01  8.2205950067759048e+01  8.3281604020582762e+01 
 8.4371332762704242e+01  8.5475320460874528e+01  8.6593753691642263e+01  8.7726821472885362e+01 
 8.8874715295755735e+01  9.0037629157041636e+01  9.1215759591953216e+01  9.2409305707338135e+01 
 9.3618469215330705e+01  9.4843454467441674e+01  9.6084468489094249e+01  9.7341721014611778e+01 